<VTKFile type="UnstructuredGrid">
<UnstructuredGrid>
<Piece NumberOfPoints="31" NumberOfCells="2">
<Points>
<DataArray type="Float64" Name="coordinates" NumberOfComponents="3" format="ascii">
1 -1 0 
1 1 0 
-1 1 0 
-1 -1 0 
1 -0.57735 0 
1 0 0 
1 0.57735 0 
0.57735 1 0 
0 1 0 
-0.57735 1 0 
-0.57735 -1 0 
0 -1 0 
0.57735 -1 0 
0.57735 0.57735 0 
0 0 0 
-0.57735 -0.57735 0 
-1 0.57735 0 
-1 0 0 
-1 -0.57735 0 
-0.476834 -0.738417 0 
0.150472 -0.699056 0 
0.738417 -0.738417 0 
0.699056 -0.150472 0 
0.738417 0.476834 0 
0.150472 -0.150472 0 
-0.738417 -0.476834 0 
-0.150472 0.150472 0 
0.476834 0.738417 0 
-0.150472 0.699056 0 
-0.738417 0.738417 0 
-0.699056 0.150472 0 
</DataArray>
</Points>
<Cells>
<DataArray type="Int32" Name="connectivity" format="ascii">
3 0 1 10 11 12 4 5 6 13 14 15 19 20 21 22 23 24 
3 1 2 15 14 13 7 8 9 16 17 18 25 26 27 28 29 30 
</DataArray>
<DataArray type="Int32" Name="offsets" format="ascii">
18
36
</DataArray>
<DataArray type="UInt8" Name="types" format="ascii">
23
23
</DataArray>
</Cells>
<PointData>
<DataArray type="Int32" Name="dof status" NumberOfComponents="1" format="ascii">
3 
3 
3 
3 
3 
3 
3 
3 
3 
3 
3 
3 
3 
3 
3 
3 
3 
3 
3 
3 
3 
3 
3 
3 
3 
3 
3 
3 
3 
3 
3 
</DataArray>
<DataArray type="Int32" Name="reordered node numbers" NumberOfComponents="1" format="ascii">
5 
9 
22 
1 
6 
7 
8 
19 
20 
21 
2 
3 
4 
10 
11 
12 
23 
24 
25 
13 
14 
15 
16 
17 
18 
26 
27 
28 
29 
30 
31 
</DataArray>
<DataArray type="Int32" Name="reordered dof numbers" NumberOfComponents="4" format="ascii">
17 18 19 20 
33 34 35 36 
85 86 87 88 
1 2 3 4 
21 22 23 24 
25 26 27 28 
29 30 31 32 
73 74 75 76 
77 78 79 80 
81 82 83 84 
5 6 7 8 
9 10 11 12 
13 14 15 16 
37 38 39 40 
41 42 43 44 
45 46 47 48 
89 90 91 92 
93 94 95 96 
97 98 99 100 
49 50 51 52 
53 54 55 56 
57 58 59 60 
61 62 63 64 
65 66 67 68 
69 70 71 72 
101 102 103 104 
105 106 107 108 
109 110 111 112 
113 114 115 116 
117 118 119 120 
121 122 123 124 
</DataArray>
</PointData>
<CellData>
<DataArray type="Int32" Name="faceNums_1" NumberOfComponents="1" format="ascii">
0 
1 
</DataArray>
<DataArray type="Int32" Name="coloring_1" NumberOfComponents="1" format="ascii">
1 
2 
</DataArray>
<DataArray type="Int32" Name="apf_part" NumberOfComponents="1" format="ascii">
0
0
</DataArray>
</CellData>
</Piece>
</UnstructuredGrid>
</VTKFile>
