<VTKFile type="UnstructuredGrid">
<UnstructuredGrid>
<Piece NumberOfPoints="125" NumberOfCells="48">
<Points>
<DataArray type="Float64" Name="coordinates" NumberOfComponents="3" format="ascii">
0 0 0 
0 0 0 
0 0 0 
0 0 0 
0 0 0 
0 0 0 
0 0 0 
0 0 0 
0 0 0 
0 0 0 
0 0 0 
0 0 0 
0 0 0 
0 0 0 
0 0 0 
0 0 0 
0 0 0 
0 0 0 
0 0 0 
0 0 0 
0 0 0 
0 0 0 
0 0 0 
0 0 0 
0 0 0 
0 0 0 
0 0 0 
0 0 0 
0 0 0 
0 0 0 
0 0 0 
0 0 0 
0 0 0 
0 0 0 
0 0 0 
0 0 0 
0 0 0 
0 0 0 
0 0 0 
0 0 0 
0 0 0 
0 0 0 
0 0 0 
0 0 0 
0 0 0 
0 0 0 
0 0 0 
0 0 0 
0 0 0 
0 0 0 
0 0 0 
0 0 0 
0 0 0 
0 0 0 
0 0 0 
0 0 0 
0 0 0 
0 0 0 
0 0 0 
0 0 0 
0 0 0 
0 0 0 
0 0 0 
0 0 0 
0 0 0 
0 0 0 
0 0 0 
0 0 0 
0 0 0 
0 0 0 
0 0 0 
0 0 0 
0 0 0 
0 0 0 
0 0 0 
0 0 0 
0 0 0 
0 0 0 
0 0 0 
0 0 0 
0 0 0 
0 0 0 
0 0 0 
0 0 0 
0 0 0 
0 0 0 
0 0 0 
0 0 0 
0 0 0 
0 0 0 
0 0 0 
0 0 0 
0 0 0 
0 0 0 
0 0 0 
0 0 0 
0 0 0 
0 0 0 
0 0 0 
0 0 0 
0 0 0 
0 0 0 
0 0 0 
0 0 0 
0 0 0 
0 0 0 
0 0 0 
0 0 0 
0 0 0 
0 0 0 
0 0 0 
0 0 0 
0 0 0 
0 0 0 
0 0 0 
0 0 0 
0 0 0 
0 0 0 
0 0 0 
0 0 0 
0 0 0 
0 0 0 
0 0 0 
0 0 0 
0 0 0 
</DataArray>
</Points>
<Cells>
<DataArray type="Int32" Name="connectivity" format="ascii">
19 0 8 2 69 36 70 71 27 37 
19 0 7 8 69 35 72 70 36 38 
20 8 1 3 74 40 80 78 39 29 
1 20 3 15 80 78 29 58 77 57 
20 8 9 1 74 42 76 80 40 43 
13 20 9 1 75 76 51 52 80 43 
13 20 1 17 75 80 52 63 79 65 
20 1 17 15 80 65 79 77 58 61 
19 8 20 21 70 74 73 81 83 82 
8 19 2 21 70 71 37 83 81 84 
21 2 8 3 84 37 83 87 28 39 
20 21 8 3 82 83 74 78 87 39 
20 21 3 15 82 87 78 77 85 57 
21 3 15 5 87 57 85 86 32 55 
21 2 3 4 84 28 87 88 30 31 
3 21 4 5 87 88 31 32 86 33 
22 21 20 15 90 82 89 91 85 77 
22 21 15 5 90 85 91 92 86 55 
15 22 5 6 91 92 55 56 93 34 
22 15 16 6 91 59 94 93 56 60 
23 19 7 8 95 72 97 98 70 38 
23 19 8 20 95 70 98 96 73 74 
23 7 9 8 97 41 101 98 38 42 
9 23 8 20 101 98 42 76 96 74 
11 23 9 13 100 101 47 49 99 51 
23 9 13 20 101 51 99 96 76 75 
23 7 10 9 97 44 102 101 41 45 
11 23 10 9 100 102 46 47 101 45 
24 23 13 20 103 99 105 104 96 75 
24 23 11 13 103 100 106 105 99 49 
12 24 11 13 107 106 48 50 105 49 
12 24 13 14 107 105 50 53 108 54 
13 24 20 25 105 104 75 112 109 110 
24 13 14 25 105 54 108 109 112 113 
25 22 20 15 111 89 110 114 91 77 
25 22 15 16 111 91 114 115 94 59 
25 20 17 15 110 79 116 114 77 61 
17 25 15 16 116 114 61 62 115 59 
25 20 13 17 110 75 112 116 79 63 
14 25 13 17 113 112 54 64 116 63 
14 25 17 18 113 116 64 66 117 67 
25 17 18 16 116 67 117 115 62 68 
26 19 20 21 118 73 119 120 81 82 
20 26 21 22 119 120 82 89 121 90 
26 19 23 20 118 95 122 119 73 96 
24 26 23 20 123 122 103 104 119 96 
24 26 20 25 123 119 104 109 124 110 
26 20 25 22 119 110 124 121 89 111 
</DataArray>
<DataArray type="Int32" Name="offsets" format="ascii">
10
20
30
40
50
60
70
80
90
100
110
120
130
140
150
160
170
180
190
200
210
220
230
240
250
260
270
280
290
300
310
320
330
340
350
360
370
380
390
400
410
420
430
440
450
460
470
480
</DataArray>
<DataArray type="UInt8" Name="types" format="ascii">
24
24
24
24
24
24
24
24
24
24
24
24
24
24
24
24
24
24
24
24
24
24
24
24
24
24
24
24
24
24
24
24
24
24
24
24
24
24
24
24
24
24
24
24
24
24
24
24
</DataArray>
</Cells>
<PointData>
<DataArray type="Int32" Name="reordered dof numbers" NumberOfComponents="4" format="ascii">
5 6 7 8 
61 62 63 64 
13 14 15 16 
65 66 67 68 
213 214 215 216 
197 198 199 200 
253 254 255 256 
41 42 43 44 
9 10 11 12 
109 110 111 112 
333 334 335 336 
313 314 315 316 
373 374 375 376 
125 126 127 128 
389 390 391 392 
93 94 95 96 
269 270 271 272 
141 142 143 144 
449 450 451 452 
1 2 3 4 
57 58 59 60 
161 162 163 164 
233 234 235 236 
285 286 287 288 
353 354 355 356 
405 406 407 408 
469 470 471 472 
33 34 35 36 
189 190 191 192 
89 90 91 92 
221 222 223 224 
225 226 227 228 
205 206 207 208 
229 230 231 232 
265 266 267 268 
45 46 47 48 
21 22 23 24 
37 38 39 40 
53 54 55 56 
85 86 87 88 
73 74 75 76 
305 306 307 308 
113 114 115 116 
121 122 123 124 
337 338 339 340 
345 346 347 348 
349 350 351 352 
321 322 323 324 
381 382 383 384 
325 326 327 328 
385 386 387 388 
133 134 135 136 
137 138 139 140 
393 394 395 396 
401 402 403 404 
209 210 211 212 
257 258 259 260 
105 106 107 108 
97 98 99 100 
273 274 275 276 
281 282 283 284 
157 158 159 160 
441 442 443 444 
145 146 147 148 
445 446 447 448 
153 154 155 156 
453 454 455 456 
461 462 463 464 
465 466 467 468 
17 18 19 20 
25 26 27 28 
29 30 31 32 
49 50 51 52 
165 166 167 168 
69 70 71 72 
129 130 131 132 
117 118 119 120 
101 102 103 104 
81 82 83 84 
149 150 151 152 
77 78 79 80 
169 170 171 172 
177 178 179 180 
173 174 175 176 
181 182 183 184 
193 194 195 196 
201 202 203 204 
185 186 187 188 
217 218 219 220 
241 242 243 244 
237 238 239 240 
245 246 247 248 
249 250 251 252 
261 262 263 264 
277 278 279 280 
289 290 291 292 
301 302 303 304 
293 294 295 296 
297 298 299 300 
329 330 331 332 
317 318 319 320 
309 310 311 312 
341 342 343 344 
357 358 359 360 
365 366 367 368 
361 362 363 364 
369 370 371 372 
377 378 379 380 
397 398 399 400 
413 414 415 416 
417 418 419 420 
425 426 427 428 
409 410 411 412 
421 422 423 424 
429 430 431 432 
433 434 435 436 
437 438 439 440 
457 458 459 460 
473 474 475 476 
477 478 479 480 
481 482 483 484 
485 486 487 488 
489 490 491 492 
493 494 495 496 
497 498 499 500 
</DataArray>
</PointData>
<CellData>
<DataArray type="Int32" Name="elNums_1" NumberOfComponents="1" format="ascii">
0 
1 
2 
3 
4 
5 
6 
7 
8 
9 
10 
11 
12 
13 
14 
15 
16 
17 
18 
19 
20 
21 
22 
23 
24 
25 
26 
27 
28 
29 
30 
31 
32 
33 
34 
35 
36 
37 
38 
39 
40 
41 
42 
43 
44 
45 
46 
47 
</DataArray>
<DataArray type="Int32" Name="apf_part" NumberOfComponents="1" format="ascii">
0
0
0
0
0
0
0
0
0
0
0
0
0
0
0
0
0
0
0
0
0
0
0
0
0
0
0
0
0
0
0
0
0
0
0
0
0
0
0
0
0
0
0
0
0
0
0
0
</DataArray>
</CellData>
</Piece>
</UnstructuredGrid>
</VTKFile>
