<VTKFile type="UnstructuredGrid">
<UnstructuredGrid>
<Piece NumberOfPoints="9" NumberOfCells="11">
<Points>
<DataArray type="Float64" Name="coordinates" NumberOfComponents="3" format="ascii">
-0.5 65 65 
65 65 65 
65 -0.5 65 
-0.5 -0.5 65 
-0.5 65 -0.5 
65 65 -0.5 
65 -0.5 -0.5 
-0.5 -0.5 -0.5 
23.2002 58.1162 38.649 
</DataArray>
</Points>
<Cells>
<DataArray type="Int32" Name="connectivity" format="ascii">
4 8 1 0 
4 3 8 0 
5 4 8 1 
3 8 5 4 
7 6 5 3 
4 7 5 3 
2 8 5 3 
1 5 2 8 
5 3 6 2 
3 2 8 0 
2 1 8 0 
</DataArray>
<DataArray type="Int32" Name="offsets" format="ascii">
4
8
12
16
20
24
28
32
36
40
44
</DataArray>
<DataArray type="UInt8" Name="types" format="ascii">
10
10
10
10
10
10
10
10
10
10
10
</DataArray>
</Cells>
<PointData>
<DataArray type="Int32" Name="nodeNumbers" NumberOfComponents="1" format="ascii">
10 
11 
12 
13 
14 
15 
16 
17 
18 
</DataArray>
</PointData>
<CellData>
<DataArray type="Int32" Name="elNums_1" NumberOfComponents="1" format="ascii">
0 
1 
2 
3 
4 
5 
6 
7 
8 
9 
10 
</DataArray>
<DataArray type="Int32" Name="apf_part" NumberOfComponents="1" format="ascii">
0
0
0
0
0
0
0
0
0
0
0
</DataArray>
</CellData>
</Piece>
</UnstructuredGrid>
</VTKFile>
