<VTKFile type="UnstructuredGrid">
<UnstructuredGrid>
<Piece NumberOfPoints="31" NumberOfCells="2">
<Points>
<DataArray type="Float64" Name="coordinates" NumberOfComponents="3" format="ascii">
1 -1 0 
1 1 0 
-1 1 0 
-1 -1 0 
1 -0.57735 0 
1 0 0 
1 0.57735 0 
0.57735 1 0 
0 1 0 
-0.57735 1 0 
-0.57735 -1 0 
0 -1 0 
0.57735 -1 0 
0.57735 0.57735 0 
0 0 0 
-0.57735 -0.57735 0 
-1 0.57735 0 
-1 0 0 
-1 -0.57735 0 
-0.476834 -0.738417 0 
0.150472 -0.699056 0 
0.738417 -0.738417 0 
0.699056 -0.150472 0 
0.738417 0.476834 0 
0.150472 -0.150472 0 
-0.738417 -0.476834 0 
-0.150472 0.150472 0 
0.476834 0.738417 0 
-0.150472 0.699056 0 
-0.738417 0.738417 0 
-0.699056 0.150472 0 
</DataArray>
</Points>
<Cells>
<DataArray type="Int32" Name="connectivity" format="ascii">
3 0 1 10 11 12 4 5 6 13 14 15 19 20 21 22 23 24 
3 1 2 15 14 13 7 8 9 16 17 18 25 26 27 28 29 30 
</DataArray>
<DataArray type="Int32" Name="offsets" format="ascii">
18
36
</DataArray>
<DataArray type="UInt8" Name="types" format="ascii">
23
23
</DataArray>
</Cells>
<PointData>
</PointData>
<CellData>
<DataArray type="Int32" Name="faceNums_1" NumberOfComponents="1" format="ascii">
0 
1 
</DataArray>
<DataArray type="Int32" Name="apf_part" NumberOfComponents="1" format="ascii">
0
0
</DataArray>
</CellData>
</Piece>
</UnstructuredGrid>
</VTKFile>
