<VTKFile type="UnstructuredGrid">
<UnstructuredGrid>
<Piece NumberOfPoints="125" NumberOfCells="48">
<Points>
<DataArray type="Float64" Name="coordinates" NumberOfComponents="3" format="ascii">
0 0 0 
0 0 0 
0 0 0 
0 0 0 
0 0 0 
0 0 0 
0 0 0 
0 0 0 
0 0 0 
0 0 0 
0 0 0 
0 0 0 
0 0 0 
0 0 0 
0 0 0 
0 0 0 
0 0 0 
0 0 0 
0 0 0 
0 0 0 
0 0 0 
0 0 0 
0 0 0 
0 0 0 
0 0 0 
0 0 0 
0 0 0 
0 0 0 
0 0 0 
0 0 0 
0 0 0 
0 0 0 
0 0 0 
0 0 0 
0 0 0 
0 0 0 
0 0 0 
0 0 0 
0 0 0 
0 0 0 
0 0 0 
0 0 0 
0 0 0 
0 0 0 
0 0 0 
0 0 0 
0 0 0 
0 0 0 
0 0 0 
0 0 0 
0 0 0 
0 0 0 
0 0 0 
0 0 0 
0 0 0 
0 0 0 
0 0 0 
0 0 0 
0 0 0 
0 0 0 
0 0 0 
0 0 0 
0 0 0 
0 0 0 
0 0 0 
0 0 0 
0 0 0 
0 0 0 
0 0 0 
0 0 0 
0 0 0 
0 0 0 
0 0 0 
0 0 0 
0 0 0 
0 0 0 
0 0 0 
0 0 0 
0 0 0 
0 0 0 
0 0 0 
0 0 0 
0 0 0 
0 0 0 
0 0 0 
0 0 0 
0 0 0 
0 0 0 
0 0 0 
0 0 0 
0 0 0 
0 0 0 
0 0 0 
0 0 0 
0 0 0 
0 0 0 
0 0 0 
0 0 0 
0 0 0 
0 0 0 
0 0 0 
0 0 0 
0 0 0 
0 0 0 
0 0 0 
0 0 0 
0 0 0 
0 0 0 
0 0 0 
0 0 0 
0 0 0 
0 0 0 
0 0 0 
0 0 0 
0 0 0 
0 0 0 
0 0 0 
0 0 0 
0 0 0 
0 0 0 
0 0 0 
0 0 0 
0 0 0 
0 0 0 
0 0 0 
</DataArray>
</Points>
<Cells>
<DataArray type="Int32" Name="connectivity" format="ascii">
19 0 8 2 69 36 70 71 27 37 
19 0 7 8 69 35 72 70 36 38 
20 8 1 3 74 40 80 78 39 29 
1 20 3 15 80 78 29 58 77 57 
20 8 9 1 74 42 76 80 40 43 
13 20 9 1 75 76 51 52 80 43 
13 20 1 17 75 80 52 63 79 65 
20 1 17 15 80 65 79 77 58 61 
19 8 20 21 70 74 73 81 83 82 
8 19 2 21 70 71 37 83 81 84 
21 2 8 3 84 37 83 87 28 39 
20 21 8 3 82 83 74 78 87 39 
20 21 3 15 82 87 78 77 85 57 
21 3 15 5 87 57 85 86 32 55 
21 2 3 4 84 28 87 88 30 31 
3 21 4 5 87 88 31 32 86 33 
22 21 20 15 90 82 89 91 85 77 
22 21 15 5 90 85 91 92 86 55 
15 22 5 6 91 92 55 56 93 34 
22 15 16 6 91 59 94 93 56 60 
23 19 7 8 95 72 97 98 70 38 
23 19 8 20 95 70 98 96 73 74 
23 7 9 8 97 41 101 98 38 42 
9 23 8 20 101 98 42 76 96 74 
11 23 9 13 100 101 47 49 99 51 
23 9 13 20 101 51 99 96 76 75 
23 7 10 9 97 44 102 101 41 45 
11 23 10 9 100 102 46 47 101 45 
24 23 13 20 103 99 105 104 96 75 
24 23 11 13 103 100 106 105 99 49 
12 24 11 13 107 106 48 50 105 49 
12 24 13 14 107 105 50 53 108 54 
13 24 20 25 105 104 75 112 109 110 
24 13 14 25 105 54 108 109 112 113 
25 22 20 15 111 89 110 114 91 77 
25 22 15 16 111 91 114 115 94 59 
25 20 17 15 110 79 116 114 77 61 
17 25 15 16 116 114 61 62 115 59 
25 20 13 17 110 75 112 116 79 63 
14 25 13 17 113 112 54 64 116 63 
14 25 17 18 113 116 64 66 117 67 
25 17 18 16 116 67 117 115 62 68 
26 19 20 21 118 73 119 120 81 82 
20 26 21 22 119 120 82 89 121 90 
26 19 23 20 118 95 122 119 73 96 
24 26 23 20 123 122 103 104 119 96 
24 26 20 25 123 119 104 109 124 110 
26 20 25 22 119 110 124 121 89 111 
</DataArray>
<DataArray type="Int32" Name="offsets" format="ascii">
10
20
30
40
50
60
70
80
90
100
110
120
130
140
150
160
170
180
190
200
210
220
230
240
250
260
270
280
290
300
310
320
330
340
350
360
370
380
390
400
410
420
430
440
450
460
470
480
</DataArray>
<DataArray type="UInt8" Name="types" format="ascii">
24
24
24
24
24
24
24
24
24
24
24
24
24
24
24
24
24
24
24
24
24
24
24
24
24
24
24
24
24
24
24
24
24
24
24
24
24
24
24
24
24
24
24
24
24
24
24
24
</DataArray>
</Cells>
<PointData>
</PointData>
<CellData>
<DataArray type="Int32" Name="apf_part" NumberOfComponents="1" format="ascii">
0
0
0
0
0
0
0
0
0
0
0
0
0
0
0
0
0
0
0
0
0
0
0
0
0
0
0
0
0
0
0
0
0
0
0
0
0
0
0
0
0
0
0
0
0
0
0
0
</DataArray>
</CellData>
</Piece>
</UnstructuredGrid>
</VTKFile>
