<VTKFile type="UnstructuredGrid">
<UnstructuredGrid>
<Piece NumberOfPoints="9" NumberOfCells="8">
<Points>
<DataArray type="Float64" Name="coordinates" NumberOfComponents="3" format="ascii">
-1 -1 0 
-1 0 0 
0 0 0 
0 -1 0 
-1 1 0 
0 1 0 
1 1 0 
1 0 0 
1 -1 0 
</DataArray>
</Points>
<Cells>
<DataArray type="Int32" Name="connectivity" format="ascii">
0 2 1 
0 3 2 
1 5 4 
1 2 5 
2 6 5 
2 7 6 
3 7 2 
3 8 7 
</DataArray>
<DataArray type="Int32" Name="offsets" format="ascii">
3
6
9
12
15
18
21
24
</DataArray>
<DataArray type="UInt8" Name="types" format="ascii">
5
5
5
5
5
5
5
5
</DataArray>
</Cells>
<PointData>
</PointData>
<CellData>
<DataArray type="Int32" Name="apf_part" NumberOfComponents="1" format="ascii">
0
0
0
0
0
0
0
0
</DataArray>
</CellData>
</Piece>
</UnstructuredGrid>
</VTKFile>
