<VTKFile type="UnstructuredGrid">
<UnstructuredGrid>
<Piece NumberOfPoints="19" NumberOfCells="24">
<Points>
<DataArray type="Float64" Name="coordinates" NumberOfComponents="3" format="ascii">
-1 -1 0 
0 -1 0 
1 -1 0 
-1 0 0 
0 0 0 
1 0 0 
-1 1 0 
0 1 0 
1 1 0 
-0.5 -1 0 
-0.5 -0.5 0 
-0.5 0 0 
0.5 -1 0 
0.5 -0.5 0 
0.5 0 0 
-0.5 0.5 0 
-0.5 1 0 
0.5 0.5 0 
0.5 1 0 
</DataArray>
</Points>
<Cells>
<DataArray type="Int32" Name="connectivity" format="ascii">
9 10 0 
10 9 1 
10 1 4 
11 10 4 
10 11 3 
10 3 0 
11 15 3 
15 11 4 
15 4 7 
12 13 1 
13 12 2 
13 2 5 
14 13 5 
13 14 4 
13 4 1 
14 17 4 
17 14 5 
17 5 8 
16 15 7 
15 16 6 
15 6 3 
18 17 8 
17 18 7 
17 7 4 
</DataArray>
<DataArray type="Int32" Name="offsets" format="ascii">
3
6
9
12
15
18
21
24
27
30
33
36
39
42
45
48
51
54
57
60
63
66
69
72
</DataArray>
<DataArray type="UInt8" Name="types" format="ascii">
5
5
5
5
5
5
5
5
5
5
5
5
5
5
5
5
5
5
5
5
5
5
5
5
</DataArray>
</Cells>
<PointData>
</PointData>
<CellData>
<DataArray type="Int32" Name="apf_part" NumberOfComponents="1" format="ascii">
0
0
0
0
0
0
0
0
0
0
0
0
0
0
0
0
0
0
0
0
0
0
0
0
</DataArray>
</CellData>
</Piece>
</UnstructuredGrid>
</VTKFile>
