<VTKFile type="UnstructuredGrid">
<UnstructuredGrid>
<Piece NumberOfPoints="3702" NumberOfCells="325">
<Points>
<DataArray type="Float64" Name="coordinates" NumberOfComponents="3" format="ascii">
3.95517 0.597162 0 
3.98878 0.299421 0 
4 4.89859e-16 0 
3.82041 1.1851 0 
3.72128 1.46699 0 
3.89822 0.896599 0 
3.79217 0.221938 0 
3.71839 0.507855 0 
3.48457 0 0 
3.76691 0 0 
3.30322 2.25582 0 
3.57898 1.11689 0 
3.46296 2.00198 0 
3.60207 1.73929 0 
3.41184 1.45139 0 
1 0 0 
1.11408 0 0 
0.99731 0.0733009 0 
3.19403 0 0 
3.51217 0.775162 0 
3.46806 0.307574 0 
3.12301 2.49936 0 
2.92488 2.72857 0 
3.14393 2.17362 0 
3.28212 1.10542 0 
3.20024 1.81576 0 
3.07998 1.46291 0 
2.81978 0 0 
1.07602 0.0614498 0 
1.25599 0 0 
1.1905 0.0795062 0 
2.44553 0 0 
2.07876 0 0 
1.45576 0 0 
1.73105 0 0 
0.975847 0.218455 0 
0.989254 0.146208 0 
1.05056 0.125019 0 
2.9879 0.367521 0 
3.16334 0.708956 0 
2.71289 2.93943 0 
2.90223 2.43764 0 
2.73777 2.66172 0 
2.86329 2.10474 0 
2.94642 1.1172 0 
2.83765 1.77641 0 
2.78759 1.46897 0 
2.48574 3.13387 0 
2.5714 0.35615 0 
1.14105 0.132112 0 
1.33302 0.110008 0 
1.24197 0.177183 0 
2.20005 0.297797 0 
1.84371 0.221964 0 
1.54112 0.164801 0 
0.956991 0.290117 0 
1.04973 0.21786 0 
0.93288 0.360187 0 
2.24556 3.31021 0 
2.68963 0.800175 0 
2.51295 2.77009 0 
2.63591 2.43287 0 
2.55954 2.10439 0 
2.58524 1.29388 0 
2.53443 1.704 0 
2.24334 2.92491 0 
2.28553 0.671405 0 
1.16158 3.82763 0 
0.876076 3.90288 0 
0.293133 3.98924 0 
0.586081 3.95683 0 
1.15405 3.57984 0 
1.44075 3.73152 0 
1.72188 3.61042 0 
1.99292 3.46818 0 
1.17842 0.264933 0 
1.36685 0.299356 0 
1.94398 0.545217 0 
1.63182 0.420205 0 
0.902605 0.430469 0 
1.05612 0.349104 0 
0.971318 0.424007 0 
0.867231 0.497906 0 
1.97123 3.09384 0 
2.30076 1.10931 0 
2.31451 2.46704 0 
2.28642 2.01345 0 
2.28055 1.55793 0 
1.98278 2.72109 0 
1.99853 0.934123 0 
-3.67394e-16 4 0 
0.880316 3.62305 0 
0.587906 3.67571 0 
0.274657 3.73893 0 
0.952582 3.35279 0 
1.33278 3.36073 0 
1.67877 3.23544 0 
1.22056 0.422543 0 
1.42357 0.539538 0 
1.67492 0.755198 0 
0.826828 0.562455 0 
0.962336 0.503155 0 
1.07846 0.486103 0 
0.91697 0.563948 0 
1.68516 2.89708 0 
1.99776 1.37898 0 
1.98062 2.30252 0 
1.9787 1.84794 0 
1.73186 2.57258 0 
1.74136 1.17694 0 
-3.20752e-16 3.61914 0 
0.605429 3.38025 0 
0.305724 3.45326 0 
0.728208 3.13027 0 
1.02695 3.0532 0 
1.36769 2.97745 0 
1.21867 0.603598 0 
1.38083 0.782614 0 
1.51432 1.04275 0 
0.783466 0.621434 0 
0.734814 0.678269 0 
0.900069 0.637556 0 
1.02838 0.618669 0 
1.44444 2.59201 0 
1.71463 1.6419 0 
1.62647 2.15731 0 
1.49219 1.38791 0 
-2.74828e-16 3.24414 0 
0.36635 3.06139 0 
0.704808 2.81984 0 
1.07566 2.67811 0 
1.32274 1.2075 0 
1.15976 0.777765 0 
1.25787 0.99045 0 
0.682049 0.731307 0 
0.759255 0.75519 0 
0.841837 0.71258 0 
0.965077 0.756995 0 
0.624195 0.781269 0 
1.19108 2.26883 0 
1.22068 1.43063 0 
1.34982 1.83137 0 
-2.28904e-16 2.86914 0 
0.352345 2.64412 0 
0.732148 2.3729 0 
1.12861 1.18577 0 
1.00417 0.968353 0 
0.701146 0.816433 0 
0.827427 0.847781 0 
0.630665 0.852753 0 
0.562693 0.826666 0 
0.500039 0.866003 0 
1.00547 1.35858 0 
0.935026 1.97326 0 
1.00558 1.6177 0 
-1.82296e-16 2.48856 0 
0.316753 2.24653 0 
0.565114 1.97322 0 
0.434043 0.900892 0 
0.903745 1.18942 0 
0.786703 1.03029 0 
0.688405 0.920737 0 
0.58057 0.913995 0 
0.4949 0.9565 0 
0.805643 1.41146 0 
0.714636 1.67699 0 
-1.35688e-16 2.10798 0 
0.256921 1.88562 0 
0.441713 1.6718 0 
0.415811 0.959973 0 
0.365629 0.930761 0 
0.673522 1.20831 0 
0.450597 1.03708 0 
0.60672 1.06131 0 
0.534275 1.4106 0 
-9.3608e-17 1.76437 0 
0.294536 0.95564 0 
0.338989 1.4606 0 
0.197888 1.59082 0 
0.292097 1.0383 0 
0.443457 1.16932 0 
0.321966 1.2757 0 
-6.29348e-17 1.5139 0 
0.222765 0.974872 0 
0.149703 1.32123 0 
0.185113 1.19127 0 
0.244876 1.10457 0 
-3.22615e-17 1.26344 0 
0.149765 0.988722 0 
0.0867847 1.17529 0 
0.127996 1.08641 0 
-1.40872e-17 1.11503 0 
0.0750943 0.997176 0 
0.057897 1.07436 0 
0 1 0 
3.98168 0.362341 0 
3.97198 0.448292 0 
3.96227 0.534242 0 
3.99763 0.0632751 0 
3.99439 0.149711 0 
3.99115 0.236146 0 
3.79946 1.24467 0 
3.77085 1.32605 0 
3.74223 1.40742 0 
3.94314 0.660441 0 
3.9267 0.74688 0 
3.91025 0.83332 0 
3.88178 0.957567 0 
3.85931 1.04085 0 
3.83685 1.12413 0 
3.95608 0.0469009 0 
3.89608 0.110969 0 
3.83609 0.175037 0 
3.94723 0.283047 0 
3.89047 0.260679 0 
3.83371 0.238312 0 
3.90514 0.578289 0 
3.83678 0.552509 0 
3.76843 0.526728 0 
3.86022 0.814448 0 
3.8083 0.702227 0 
3.75639 0.590006 0 
3.93164 0.343468 0 
3.85358 0.403638 0 
3.77553 0.463808 0 
3.77657 0.282359 0 
3.75528 0.364896 0 
3.73398 0.447434 0 
3.54424 0 0 
3.62574 0 0 
3.70724 0 0 
3.81617 1.03519e-16 0 
3.88345 2.44929e-16 0 
3.95074 3.86339e-16 0 
3.77225 0.0469009 0 
3.77954 0.110969 0 
3.78683 0.175037 0 
3.76939 1.17069 0 
3.69969 1.151 0 
3.63 1.1313 0 
3.69121 1.39301 0 
3.65013 1.29194 0 
3.60905 1.19088 0 
3.83076 0.943152 0 
3.7386 1.00674 0 
3.64644 1.07034 0 
3.4292 2.05562 0 
3.38309 2.1289 0 
3.33698 2.20217 0 
3.69609 1.52453 0 
3.66167 1.60314 0 
3.62726 1.68174 0 
3.57267 1.7948 0 
3.53251 1.87063 0 
3.49236 1.94646 0 
3.56187 1.67845 0 
3.50695 1.59534 0 
3.45204 1.51223 0 
3.65589 1.46369 0 
3.56656 1.45919 0 
3.47723 1.45469 0 
3.54366 1.18758 0 
3.49541 1.28414 0 
3.44716 1.3807 0 
1.02411 0 0 
1.05704 0 0 
1.08997 0 0 
0.997878 0.0578106 0 
0.998655 0.0366505 0 
0.999432 0.0154903 0 
3.25543 0 0 
3.3393 0 0 
3.42317 0 0 
3.67481 0.564344 0 
3.61528 0.641509 0 
3.55575 0.718673 0 
3.56486 1.04467 0 
3.54557 0.946026 0 
3.52629 0.847378 0 
3.81664 0.870936 0 
3.70519 0.83588 0 
3.59375 0.800825 0 
3.25194 0.0649981 0 
3.33104 0.153787 0 
3.41015 0.242576 0 
3.53655 0.289477 0 
3.63011 0.264756 0 
3.72367 0.240035 0 
3.52096 0.349899 0 
3.59322 0.407715 0 
3.66549 0.465531 0 
3.47738 0.406387 0 
3.49011 0.541368 0 
3.50285 0.676349 0 
3.47155 0.242576 0 
3.47631 0.153787 0 
3.48108 0.0649981 0 
3.53121 0.242576 0 
3.61748 0.153787 0 
3.70375 0.0649981 0 
3.26514 2.30728 0 
3.21312 2.37759 0 
3.16109 2.44789 0 
3.08114 2.5478 0 
3.02395 2.61396 0 
2.96675 2.68013 0 
3.26956 2.23845 0 
3.22358 2.21472 0 
3.17759 2.19099 0 
3.39554 2.03825 0 
3.30345 2.0878 0 
3.21135 2.13735 0 
3.13951 2.24246 0 
3.13347 2.33649 0 
3.12743 2.43052 0 
3.34486 1.10784 0 
3.43055 1.11115 0 
3.51624 1.11447 0 
3.33074 1.03563 0 
3.39715 0.94029 0 
3.46355 0.844953 0 
3.30953 1.17853 0 
3.34698 1.2784 0 
3.38442 1.37828 0 
3.15583 2.098 0 
3.17209 1.99469 0 
3.18834 1.89139 0 
3.36712 1.52839 0 
3.30604 1.63357 0 
3.24496 1.73876 0 
3.40744 1.96262 0 
3.3316 1.90887 0 
3.25576 1.85511 0 
3.51715 1.75545 0 
3.40116 1.77752 0 
3.28516 1.7996 0 
3.23941 1.18096 0 
3.18105 1.28416 0 
3.1227 1.38736 0 
3.15011 1.46047 0 
3.24591 1.45715 0 
3.34171 1.45382 0 
3.1054 1.53748 0 
3.14011 1.63933 0 
3.17483 1.74119 0 
2.89886 0 0 
3.0069 0 0 
3.11494 0 0 
1.01607 0.0129859 0 
1.03801 0.0307249 0 
1.05996 0.0484639 0 
1.10604 0.0129859 0 
1.09505 0.0307249 0 
1.08406 0.0484639 0 
1.01394 0.0707965 0 
1.03667 0.0673754 0 
1.05939 0.0639542 0 
1.14407 0 0 
1.18504 0 0 
1.22601 0 0 
1.13023 0.0168016 0 
1.15229 0.0397531 0 
1.17435 0.0627045 0 
1.24215 0.0168016 0 
1.22325 0.0397531 0 
1.20434 0.0627045 0 
1.10021 0.0652656 0 
1.13326 0.070478 0 
1.16631 0.0756904 0 
2.52461 0 0 
2.63265 0 0 
2.74069 0 0 
2.15627 0 0 
2.26214 0 0 
2.36802 0 0 
1.29821 0 0 
1.35588 0 0 
1.41354 0 0 
1.51393 0 0 
1.5934 0 0 
1.67287 0 0 
1.80453 0 0 
1.9049 0 0 
2.00528 0 0 
0.97868 0.203187 0 
0.98255 0.182331 0 
0.986421 0.161475 0 
0.990956 0.130801 0 
0.993282 0.109754 0 
0.995607 0.0887079 0 
1.00221 0.14173 0 
1.01991 0.135613 0 
1.0376 0.129497 0 
1.07064 0.0748835 0 
1.06329 0.0932343 0 
1.05594 0.111585 0 
1.03931 0.11409 0 
1.02393 0.0991599 0 
1.00856 0.0842302 0 
3.15047 0.0776664 0 
3.09096 0.183761 0 
3.03146 0.289855 0 
3.36659 0.320243 0 
3.22798 0.337548 0 
3.08937 0.354853 0 
2.8553 0.0776664 0 
2.90384 0.183761 0 
2.95237 0.289855 0 
3.02498 0.439675 0 
3.07562 0.538239 0 
3.12627 0.636802 0 
3.25702 1.02164 0 
3.22273 0.907187 0 
3.18845 0.792738 0 
3.43845 0.761171 0 
3.33776 0.742059 0 
3.23706 0.722947 0 
3.40366 0.392396 0 
3.3157 0.508265 0 
3.22774 0.624134 0 
2.88008 2.77313 0 
2.81889 2.834 0 
2.75769 2.89487 0 
2.92009 2.66709 0 
2.91355 2.5831 0 
2.90702 2.49912 0 
3.07635 2.48632 0 
3.01262 2.4685 0 
2.94889 2.45068 0 
3.09285 2.22941 0 
3.02308 2.30563 0 
2.95331 2.38185 0 
2.86747 2.48499 0 
2.82 2.54968 0 
2.77253 2.61436 0 
2.71815 2.88074 0 
2.72533 2.80057 0 
2.73251 2.7204 0 
2.88534 2.71444 0 
2.83133 2.69514 0 
2.77731 2.67584 0 
2.87152 2.17509 0 
2.88276 2.27119 0 
2.894 2.36729 0 
2.9226 2.11929 0 
3.00361 2.13918 0 
3.08463 2.15906 0 
2.9345 2.04367 0 
3.03177 1.96025 0 
3.12904 1.87683 0 
3.01736 1.11471 0 
3.11427 1.11131 0 
3.21118 1.10791 0 
2.97465 1.19026 0 
3.0132 1.29006 0 
3.05176 1.38985 0 
2.99226 1.03093 0 
3.05488 0.913079 0 
3.1175 0.795228 0 
2.85787 2.03535 0 
2.85047 1.94057 0 
2.84307 1.8458 0 
2.91427 1.78473 0 
3.01895 1.79609 0 
3.12362 1.80745 0 
2.88886 1.71016 0 
2.95881 1.61966 0 
3.02877 1.52916 0 
2.91286 1.19154 0 
2.86701 1.29309 0 
2.82116 1.39463 0 
3.01819 1.46419 0 
2.93379 1.46594 0 
2.84938 1.46769 0 
2.82707 1.71144 0 
2.81262 1.62269 0 
2.79817 1.53394 0 
2.66489 2.98052 0 
2.59931 3.03665 0 
2.53374 3.09278 0 
2.47213 0.0752633 0 
2.50846 0.178075 0 
2.5448 0.280886 0 
2.76729 0.0752633 0 
2.69559 0.178075 0 
2.62389 0.280886 0 
2.89988 0.365118 0 
2.77965 0.361836 0 
2.65942 0.358553 0 
1.12193 0.130613 0 
1.0958 0.128565 0 
1.06968 0.126518 0 
1.1515 0.120995 0 
1.16577 0.105809 0 
1.18005 0.090623 0 
1.12731 0.117179 0 
1.10853 0.0967808 0 
1.08976 0.0763824 0 
1.27227 0.0232474 0 
1.29451 0.0550039 0 
1.31675 0.0867604 0 
1.42982 0.0232474 0 
1.39439 0.0550039 0 
1.35896 0.0867604 0 
1.3029 0.103562 0 
1.26176 0.0947569 0 
1.22062 0.0859519 0 
1.16237 0.141636 0 
1.19151 0.154647 0 
1.22064 0.167658 0 
1.31378 0.124204 0 
1.2875 0.143595 0 
1.26121 0.162987 0 
[...]
<CellData>
<DataArray type="Int32" Name="apf_part" NumberOfComponents="1" format="ascii">
0
0
0
0
0
0
0
0
0
0
0
0
0
0
0
0
0
0
0
0
0
0
0
0
0
0
0
0
0
0
0
0
0
0
0
0
0
0
0
0
0
0
0
0
0
0
0
0
0
0
0
0
0
0
0
0
0
0
0
0
0
0
0
0
0
0
0
0
0
0
0
0
0
0
0
0
0
0
0
0
0
0
0
0
0
0
0
0
0
0
0
0
0
0
0
0
0
0
0
0
0
0
0
0
0
0
0
0
0
0
0
0
0
0
0
0
0
0
0
0
0
0
0
0
0
0
0
0
0
0
0
0
0
0
0
0
0
0
0
0
0
0
0
0
0
0
0
0
0
0
0
0
0
0
0
0
0
0
0
0
0
0
0
0
0
0
0
0
0
0
0
0
0
0
0
0
0
0
0
0
0
0
0
0
0
0
0
0
0
0
0
0
0
0
0
0
0
0
0
0
0
0
0
0
0
0
0
0
0
0
0
0
0
0
0
0
0
0
0
0
0
0
0
0
0
0
0
0
0
0
0
0
0
0
0
0
0
0
0
0
0
0
0
0
0
0
0
0
0
0
0
0
0
0
0
0
0
0
0
0
0
0
0
0
0
0
0
0
0
0
0
0
0
0
0
0
0
0
0
0
0
0
0
0
0
0
0
0
0
0
0
0
0
0
0
0
0
0
0
0
0
0
0
0
0
0
0
0
0
0
0
0
0
0
0
0
0
0
0
0
0
0
0
0
0
</DataArray>
</CellData>
</Piece>
</UnstructuredGrid>
</VTKFile>
