<VTKFile type="UnstructuredGrid">
<UnstructuredGrid>
<Piece NumberOfPoints="3702" NumberOfCells="325">
<Points>
<DataArray type="Float64" Name="coordinates" NumberOfComponents="3" format="ascii">
0 1 0 
0.057897 1.07436 0 
0.0750943 0.997176 0 
-1.40872e-17 1.11503 0 
0.127996 1.08641 0 
0.0867847 1.17529 0 
0.149765 0.988722 0 
-3.22615e-17 1.26344 0 
0.244876 1.10457 0 
0.185113 1.19127 0 
0.149703 1.32123 0 
0.222765 0.974872 0 
-6.29348e-17 1.5139 0 
0.321966 1.2757 0 
0.443457 1.16932 0 
0.292097 1.0383 0 
0.197888 1.59082 0 
0.338989 1.4606 0 
0.294536 0.95564 0 
-9.3608e-17 1.76437 0 
0.534275 1.4106 0 
0.60672 1.06131 0 
0.450597 1.03708 0 
0.673522 1.20831 0 
0.365629 0.930761 0 
0.415811 0.959973 0 
0.441713 1.6718 0 
0.256921 1.88562 0 
-1.35688e-16 2.10798 0 
0.714636 1.67699 0 
0.805643 1.41146 0 
0.4949 0.9565 0 
0.58057 0.913995 0 
0.688405 0.920737 0 
0.786703 1.03029 0 
0.903745 1.18942 0 
0.434043 0.900892 0 
0.565114 1.97322 0 
0.316753 2.24653 0 
-1.82296e-16 2.48856 0 
1.00558 1.6177 0 
0.935026 1.97326 0 
1.00547 1.35858 0 
0.500039 0.866003 0 
0.562693 0.826666 0 
0.630665 0.852753 0 
0.827427 0.847781 0 
0.701146 0.816433 0 
1.00417 0.968353 0 
1.12861 1.18577 0 
0.732148 2.3729 0 
0.352345 2.64412 0 
-2.28904e-16 2.86914 0 
1.34982 1.83137 0 
1.22068 1.43063 0 
1.19108 2.26883 0 
0.624195 0.781269 0 
0.965077 0.756995 0 
0.841837 0.71258 0 
0.759255 0.75519 0 
0.682049 0.731307 0 
1.25787 0.99045 0 
1.15976 0.777765 0 
1.32274 1.2075 0 
1.07566 2.67811 0 
0.704808 2.81984 0 
0.36635 3.06139 0 
-2.74828e-16 3.24414 0 
1.49219 1.38791 0 
1.62647 2.15731 0 
1.71463 1.6419 0 
1.44444 2.59201 0 
1.02838 0.618669 0 
0.900069 0.637556 0 
0.734814 0.678269 0 
0.783466 0.621434 0 
1.51432 1.04275 0 
1.38083 0.782614 0 
1.21867 0.603598 0 
1.36769 2.97745 0 
1.02695 3.0532 0 
0.728208 3.13027 0 
0.305724 3.45326 0 
0.605429 3.38025 0 
-3.20752e-16 3.61914 0 
1.74136 1.17694 0 
1.73186 2.57258 0 
1.9787 1.84794 0 
1.98062 2.30252 0 
1.99776 1.37898 0 
1.68516 2.89708 0 
0.91697 0.563948 0 
1.07846 0.486103 0 
0.962336 0.503155 0 
0.826828 0.562455 0 
1.67492 0.755198 0 
1.42357 0.539538 0 
1.22056 0.422543 0 
1.67877 3.23544 0 
1.33278 3.36073 0 
0.952582 3.35279 0 
0.274657 3.73893 0 
0.587906 3.67571 0 
0.880316 3.62305 0 
-3.67394e-16 4 0 
1.99853 0.934123 0 
1.98278 2.72109 0 
2.28055 1.55793 0 
2.28642 2.01345 0 
2.31451 2.46704 0 
2.30076 1.10931 0 
1.97123 3.09384 0 
0.867231 0.497906 0 
0.971318 0.424007 0 
1.05612 0.349104 0 
0.902605 0.430469 0 
1.63182 0.420205 0 
1.94398 0.545217 0 
1.36685 0.299356 0 
1.17842 0.264933 0 
1.99292 3.46818 0 
1.72188 3.61042 0 
1.44075 3.73152 0 
1.15405 3.57984 0 
0.586081 3.95683 0 
0.293133 3.98924 0 
0.876076 3.90288 0 
1.16158 3.82763 0 
2.28553 0.671405 0 
2.24334 2.92491 0 
2.53443 1.704 0 
2.58524 1.29388 0 
2.55954 2.10439 0 
2.63591 2.43287 0 
2.51295 2.77009 0 
2.68963 0.800175 0 
2.24556 3.31021 0 
0.93288 0.360187 0 
1.04973 0.21786 0 
0.956991 0.290117 0 
1.54112 0.164801 0 
1.84371 0.221964 0 
2.20005 0.297797 0 
1.24197 0.177183 0 
1.33302 0.110008 0 
1.14105 0.132112 0 
2.5714 0.35615 0 
2.48574 3.13387 0 
2.78759 1.46897 0 
2.83765 1.77641 0 
2.94642 1.1172 0 
2.86329 2.10474 0 
2.73777 2.66172 0 
2.90223 2.43764 0 
2.71289 2.93943 0 
3.16334 0.708956 0 
2.9879 0.367521 0 
1.05056 0.125019 0 
0.989254 0.146208 0 
0.975847 0.218455 0 
1.73105 0 0 
1.45576 0 0 
2.07876 0 0 
2.44553 0 0 
1.1905 0.0795062 0 
1.25599 0 0 
1.07602 0.0614498 0 
2.81978 0 0 
3.07998 1.46291 0 
3.20024 1.81576 0 
3.28212 1.10542 0 
3.14393 2.17362 0 
2.92488 2.72857 0 
3.12301 2.49936 0 
3.46806 0.307574 0 
3.51217 0.775162 0 
3.19403 0 0 
0.99731 0.0733009 0 
1.11408 0 0 
1 0 0 
3.41184 1.45139 0 
3.60207 1.73929 0 
3.46296 2.00198 0 
3.57898 1.11689 0 
3.30322 2.25582 0 
3.76691 0 0 
3.48457 0 0 
3.71839 0.507855 0 
3.79217 0.221938 0 
3.89822 0.896599 0 
3.72128 1.46699 0 
3.82041 1.1851 0 
4 4.89859e-16 0 
3.98878 0.299421 0 
3.95517 0.597162 0 
0.0122351 1.01571 0 
0.0289485 1.03718 0 
0.0456619 1.05865 0 
0.0158693 0.999403 0 
0.0375472 0.998588 0 
0.059225 0.997773 0 
-1.11103e-17 1.09072 0 
-7.04362e-18 1.05752 0 
-2.97698e-18 1.02431 0 
0.0727106 1.07691 0 
0.0929463 1.08039 0 
0.113182 1.08387 0 
0.0640017 1.09569 0 
0.0723408 1.12483 0 
0.08068 1.15396 0 
0.0122351 1.10644 0 
0.0289485 1.0947 0 
0.0456619 1.08296 0 
0.0714601 1.01349 0 
0.0664956 1.03577 0 
0.0615312 1.05805 0 
0.0862737 1.01603 0 
0.101545 1.0418 0 
0.116816 1.06756 0 
0.090874 0.99539 0 
0.112429 0.992949 0 
0.133985 0.990508 0 
0.0183398 1.12777 0 
0.0433923 1.14516 0 
0.0684449 1.16256 0 
-2.84208e-17 1.23207 0 
-2.31744e-17 1.18923 0 
-1.79279e-17 1.14639 0 
0.152695 1.09025 0 
0.186436 1.09549 0 
0.220176 1.10073 0 
0.173042 1.16911 0 
0.156554 1.13884 0 
0.140066 1.10857 0 
0.0954936 1.15651 0 
0.10739 1.13085 0 
0.119287 1.1052 0 
0.145164 1.00937 0 
0.13888 1.03757 0 
0.132596 1.06577 0 
0.136407 1.29039 0 
0.118244 1.24826 0 
0.100081 1.20613 0 
0.107564 1.17867 0 
0.135949 1.18328 0 
0.164334 1.18789 0 
0.0183398 1.24481 0 
0.0433923 1.21936 0 
0.0684449 1.19392 0 
0.169864 1.0132 0 
0.19732 1.04664 0 
0.224777 1.08009 0 
0.165191 0.985795 0 
0.186265 0.981797 0 
0.207339 0.977799 0 
0.0316359 1.27565 0 
0.0748515 1.29233 0 
0.118067 1.30902 0 
-5.64527e-17 1.46097 0 
-4.75981e-17 1.38867 0 
-3.87435e-17 1.31636 0 
0.305675 1.23954 0 
0.283421 1.19014 0 
0.261167 1.14073 0 
0.286841 1.11825 0 
0.344167 1.13694 0 
0.401492 1.15563 0 
0.254855 1.09056 0 
0.268486 1.07143 0 
0.282118 1.0523 0 
0.197742 1.17295 0 
0.214994 1.14792 0 
0.232247 1.12289 0 
0.227438 1.00228 0 
0.233821 1.03972 0 
0.240204 1.07716 0 
0.214033 1.20911 0 
0.253539 1.23349 0 
0.293045 1.25786 0 
0.17763 1.21873 0 
0.167408 1.25625 0 
0.157186 1.29377 0 
0.187705 1.53385 0 
0.173795 1.45603 0 
0.159886 1.3782 0 
0.189704 1.35068 0 
0.244346 1.39091 0 
0.298988 1.43115 0 
0.186106 1.31161 0 
0.235834 1.29847 0 
0.285562 1.28532 0 
0.0316359 1.47319 0 
0.0748515 1.41757 0 
0.118067 1.36195 0 
0.237417 0.988275 0 
0.257431 1.00658 0 
0.277445 1.02489 0 
0.237932 0.970808 0 
0.258651 0.965256 0 
0.279369 0.959704 0 
0.0418186 1.53016 0 
0.0989438 1.55236 0 
0.156069 1.57457 0 
-8.7126e-17 1.71144 0 
-7.82714e-17 1.63913 0 
-6.94168e-17 1.56683 0 
0.366832 1.30421 0 
0.42812 1.34315 0 
0.489409 1.38209 0 
0.34764 1.25322 0 
0.382711 1.22251 0 
0.417783 1.1918 0 
0.325563 1.31478 0 
0.330477 1.36815 0 
0.335391 1.42153 0 
0.462649 1.2203 0 
0.488866 1.28996 0 
0.515083 1.35961 0 
0.477959 1.14649 0 
0.525089 1.11531 0 
0.572219 1.08414 0 
0.444966 1.14137 0 
0.447027 1.1032 0 
0.449088 1.06502 0 
0.624904 1.20007 0 
0.55849 1.18881 0 
0.492076 1.17756 0 
0.324083 1.06599 0 
0.367777 1.10381 0 
0.411471 1.14163 0 
0.307636 1.01557 0 
0.328863 0.984529 0 
0.35009 0.953486 0 
0.318241 1.02175 0 
0.353954 0.999135 0 
0.389667 0.976525 0 
0.325592 1.03804 0 
0.371347 1.03769 0 
0.417102 1.03734 0 
0.294021 0.973108 0 
0.293317 0.996969 0 
0.292612 1.02083 0 
0.249414 1.60793 0 
0.3198 1.63131 0 
0.390186 1.65468 0 
0.227706 1.5633 0 
0.268438 1.52571 0 
0.309171 1.48812 0 
0.244446 1.82332 0 
0.227404 1.73822 0 
0.210363 1.65312 0 
0.0418186 1.72769 0 
0.0989438 1.67759 0 
0.156069 1.6275 0 
0.380258 1.45003 0 
0.436632 1.4356 0 
0.493006 1.42116 0 
0.360697 1.50523 0 
0.390351 1.5662 0 
0.420005 1.62716 0 
0.30956 0.950383 0 
0.330083 0.9432 0 
0.350606 0.936018 0 
0.0542938 1.78999 0 
0.12846 1.82499 0 
0.202627 1.85999 0 
-1.26795e-16 2.03536 0 
-1.14648e-16 1.93617 0 
-1.02501e-16 1.83698 0 
0.676521 1.62069 0 
0.624456 1.54379 0 
0.57239 1.46689 0 
0.461273 1.6166 0 
0.487994 1.5412 0 
0.514714 1.46579 0 
0.644096 1.25106 0 
0.603899 1.30945 0 
0.563701 1.36785 0 
0.748296 1.41128 0 
0.669959 1.41103 0 
0.591622 1.41078 0 
0.58309 1.03916 0 
0.55081 1.00891 0 
0.51853 0.97865 0 
0.659405 1.17725 0 
0.640121 1.13481 0 
0.620837 1.09238 0 
0.586097 0.945127 0 
0.593645 0.987654 0 
0.601194 1.03018 0 
0.48359 1.0422 0 
0.528659 1.0492 0 
0.573728 1.05619 0 
0.671143 0.950444 0 
0.647563 0.991025 0 
0.623982 1.03161 0 
0.748668 1.03684 0 
0.696712 1.0458 0 
0.644755 1.05476 0 
0.459959 1.02005 0 
0.472748 0.99679 0 
0.485538 0.973529 0 
0.443246 1.02079 0 
0.433204 0.998527 0 
0.423162 0.976268 0 
0.762785 1.06791 0 
0.730113 1.1193 0 
0.69744 1.17069 0 
0.855093 1.19341 0 
0.788634 1.19887 0 
0.722174 1.20432 0 
0.777723 1.36853 0 
0.739583 1.30989 0 
0.701443 1.25124 0 
0.376234 0.936934 0 
0.39072 0.945367 0 
0.405206 0.9538 0 
0.380087 0.924449 0 
0.399836 0.915826 0 
0.419586 0.907204 0 
0.432524 0.959239 0 
0.455355 0.958237 0 
0.478186 0.957234 0 
0.43019 0.913377 0 
0.424927 0.930433 0 
0.419664 0.947488 0 
0.539036 1.90952 0 
0.503413 1.82251 0 
0.46779 1.73549 0 
0.656961 1.67589 0 
0.578174 1.67439 0 
0.499388 1.67289 0 
0.295972 1.84043 0 
0.349317 1.77871 0 
0.402662 1.71698 0 
0.269565 1.96189 0 
0.286837 2.06607 0 
0.304109 2.17026 0 
0.499985 1.95471 0 
0.411017 1.92942 0 
0.32205 1.90413 0 
0.0542938 2.06099 0 
0.12846 1.9968 0 
0.202627 1.93261 0 
0.0669378 2.13726 0 
0.158376 2.17725 0 
0.249815 2.21725 0 
-1.72446e-16 2.40813 0 
-1.58992e-16 2.29827 0 
-1.45537e-16 2.1884 0 
0.776121 1.66446 0 
0.86011 1.64734 0 
0.944099 1.63023 0 
0.76121 1.7396 0 
0.824831 1.82513 0 
0.888452 1.91065 0 
0.786411 1.46757 0 
0.76014 1.54423 0 
0.733868 1.62088 0 
0.596711 1.91062 0 
0.639875 1.8251 0 
0.683038 1.73959 0 
0.847895 1.45505 0 
0.905613 1.51458 0 
0.963331 1.57412 0 
0.847872 1.40029 0 
0.905557 1.38502 0 
0.963243 1.36975 0 
0.826374 1.36454 0 
0.854694 1.30044 0 
0.883014 1.23634 0 
0.562466 0.922978 0 
0.537735 0.935248 0 
0.513004 0.947518 0 
0.498953 0.885127 0 
0.497469 0.911252 0 
0.495986 0.937376 0 
0.446904 0.912643 0 
0.464472 0.928696 0 
0.482039 0.944749 0 
0.576793 0.895541 0 
0.571632 0.870331 0 
0.566471 0.845121 0 
0.517057 0.876145 0 
0.540305 0.889999 0 
0.563552 0.903853 0 
0.665617 0.919312 0 
0.634488 0.917366 0 
0.603358 0.91542 0 
0.620079 0.865695 0 
[...]
<CellData>
<DataArray type="Int32" Name="apf_part" NumberOfComponents="1" format="ascii">
0
0
0
0
0
0
0
0
0
0
0
0
0
0
0
0
0
0
0
0
0
0
0
0
0
0
0
0
0
0
0
0
0
0
0
0
0
0
0
0
0
0
0
0
0
0
0
0
0
0
0
0
0
0
0
0
0
0
0
0
0
0
0
0
0
0
0
0
0
0
0
0
0
0
0
0
0
0
0
0
0
0
0
0
0
0
0
0
0
0
0
0
0
0
0
0
0
0
0
0
0
0
0
0
0
0
0
0
0
0
0
0
0
0
0
0
0
0
0
0
0
0
0
0
0
0
0
0
0
0
0
0
0
0
0
0
0
0
0
0
0
0
0
0
0
0
0
0
0
0
0
0
0
0
0
0
0
0
0
0
0
0
0
0
0
0
0
0
0
0
0
0
0
0
0
0
0
0
0
0
0
0
0
0
0
0
0
0
0
0
0
0
0
0
0
0
0
0
0
0
0
0
0
0
0
0
0
0
0
0
0
0
0
0
0
0
0
0
0
0
0
0
0
0
0
0
0
0
0
0
0
0
0
0
0
0
0
0
0
0
0
0
0
0
0
0
0
0
0
0
0
0
0
0
0
0
0
0
0
0
0
0
0
0
0
0
0
0
0
0
0
0
0
0
0
0
0
0
0
0
0
0
0
0
0
0
0
0
0
0
0
0
0
0
0
0
0
0
0
0
0
0
0
0
0
0
0
0
0
0
0
0
0
0
0
0
0
0
0
0
0
0
0
0
0
</DataArray>
</CellData>
</Piece>
</UnstructuredGrid>
</VTKFile>
